# Created by CSS Data Browser Version 4.2.4.201810020107
# 
# Start Time : 2020-01-14 14:31:30.919
# End Time   : 2020-01-14 15:01:48.919
# Source     : Optimized Archived Data
# Desired Value Count: 1000.0
# Format     : Decimal (6 digits)
# 
# Data is in TAB-delimited columns, should import into e.g. Excel

# Channel: BY02AX107
# Name   : 泵罐压力
# Archives:
# 1) TMSR arch0
#    URL: pbraw://192.168.10.6:17668/retrieval
#    Key: 0
# 
# Channel: BY05AX028
# Name   : P4
# Archives:
# 1) TMSR arch0
#    URL: pbraw://192.168.10.6:17668/retrieval
#    Key: 0
# 
# Channel: BY05AX027
# Name   : P3
# Archives:
# 1) TMSR arch0
#    URL: pbraw://192.168.10.6:17668/retrieval
#    Key: 0
# 

# Time	BY02AX107 Value	BY05AX028 Value	BY05AX027 Value
2020-01-14 14:31:30.500000000	0.025531	-9.486573	-9.852762
2020-01-14 14:31:31.500000000	0.025669	-9.475130	-9.829875
2020-01-14 14:31:32.500000000	0.025577	-9.452243	-9.818432
2020-01-14 14:31:33.500000000	0.025623	-9.475130	-9.818432
2020-01-14 14:31:34.500000000	0.025531	-9.440799	-9.806988
2020-01-14 14:31:35.500000000	0.025807	-9.429356	-9.806988
2020-01-14 14:31:36.500000000	0.025807	-9.452243	-9.795545
2020-01-14 14:31:37.500000000	0.025807	-9.429356	-9.818432
2020-01-14 14:31:38.500000000	0.025761	-9.429356	-9.795545
2020-01-14 14:31:39.500000000	0.025807	-9.429356	-9.749772
2020-01-14 14:31:40.500000000	0.025991	-9.429356	-9.738328
2020-01-14 14:31:41.500000000	0.025746	-9.406469	-9.738328
2020-01-14 14:31:42.500000000	0.025899	-9.383583	-9.726885
2020-01-14 14:31:43.500000000	0.025945	-9.360696	-9.738328
2020-01-14 14:31:44.500000000	0.025807	-9.406469	-9.749772
2020-01-14 14:31:45.500000000	0.025807	-9.360696	-9.726885
2020-01-14 14:31:46.500000000	0.026022	-9.360696	-9.703998
2020-01-14 14:31:47.500000000	0.026022	-9.326365	-9.703998
2020-01-14 14:31:48.500000000	0.026083	-9.337809	-9.703998
2020-01-14 14:31:49.500000000	0.025991	-9.326365	-9.681110
2020-01-14 14:31:50.500000000	0.026083	-9.314922	-9.703998
2020-01-14 14:31:51.500000000	0.026083	-9.314922	-9.681110
2020-01-14 14:31:52.500000000	0.026083	-9.337809	-9.681110
2020-01-14 14:31:53.500000000	0.026037	-9.303479	-9.681110
2020-01-14 14:31:54.500000000	0.026175	-9.292035	-9.635338
2020-01-14 14:31:55.500000000	0.026083	-9.292035	-9.635338
2020-01-14 14:31:56.500000000	0.026083	-9.292035	-9.635338
2020-01-14 14:31:57.500000000	0.026083	-9.246262	-9.612451
2020-01-14 14:31:58.500000000	0.026175	-9.246262	-9.612451
2020-01-14 14:31:59.500000000	0.026175	-9.223375	-9.612451
2020-01-14 14:32:00.500000000	0.026083	-9.234818	-9.601007
2020-01-14 14:32:01.500000000	0.026206	-9.211932	-9.589563
2020-01-14 14:32:02.500000000	0.026221	-9.246262	-9.566677
2020-01-14 14:32:03.500000000	0.026175	-9.211932	-9.566677
2020-01-14 14:32:04.500000000	0.026267	-9.223375	-9.589564
2020-01-14 14:32:05.500000000	0.026175	-9.200489	-9.578120
2020-01-14 14:32:06.500000000	0.026175	-9.200489	-9.578120
2020-01-14 14:32:07.500000000	0.026313	-9.200488	-9.578120
2020-01-14 14:32:08.500000000	0.026313	-9.200488	-9.578120
2020-01-14 14:32:09.500000000	0.026359	-9.154715	-9.520904
2020-01-14 14:32:10.500000000	0.026175	-9.154715	-9.520904
2020-01-14 14:32:11.500000000	0.026359	-9.131828	-9.475130
2020-01-14 14:32:12.500000000	0.026267	-9.131828	-9.509460
2020-01-14 14:32:13.500000000	0.026083	-9.131828	-9.486573
2020-01-14 14:32:14.500000000	0.026298	-9.131828	-9.486573
2020-01-14 14:32:15.500000000	0.026298	-9.131828	-9.486573
2020-01-14 14:32:16.500000000	0.026298	-9.131828	-9.475130
2020-01-14 14:32:17.500000000	0.026543	-9.120385	-9.475130
2020-01-14 14:32:18.500000000	0.026451	-9.086055	-9.452243
2020-01-14 14:32:19.500000000	0.026175	-9.097498	-9.463686
2020-01-14 14:32:20.500000000	0.026451	-9.097498	-9.463686
2020-01-14 14:32:21.500000000	0.026359	-9.074611	-9.463686
2020-01-14 14:32:22.500000000	0.026451	-9.063168	-9.383583
2020-01-14 14:32:23.500000000	0.026543	-9.017394	-9.406469
2020-01-14 14:32:24.500000000	0.026405	-9.017394	-9.383583
2020-01-14 14:32:25.500000000	0.026543	-9.040281	-9.406469
2020-01-14 14:32:26.500000000	0.026543	-8.994508	-9.383583
2020-01-14 14:32:27.500000000	0.026589	-9.040281	-9.360696
2020-01-14 14:32:28.500000000	0.026451	-8.971621	-9.337809
2020-01-14 14:32:29.500000000	0.026543	-8.983064	-9.337809
2020-01-14 14:32:30.500000000	0.026543	-8.983064	-9.360696
2020-01-14 14:32:31.500000000	0.026635	-8.948734	-9.337809
2020-01-14 14:32:32.500000000	0.026681	-8.960177	-9.337809
2020-01-14 14:32:33.500000000	0.026497	-8.960177	-9.292036
2020-01-14 14:32:34.500000000	0.026819	-8.971621	-9.326365
2020-01-14 14:32:35.500000000	0.026635	-8.948734	-9.326365
2020-01-14 14:32:36.500000000	0.026635	-8.960177	-9.326365
2020-01-14 14:32:37.500000000	0.026819	-8.960177	-9.326365
2020-01-14 14:32:38.500000000	0.026819	-8.902960	-9.280592
2020-01-14 14:32:39.500000000	0.026819	-8.948734	-9.269149
2020-01-14 14:32:40.500000000	0.026758	-8.902960	-9.280592
2020-01-14 14:32:41.500000000	0.026911	-8.880074	-9.246262
2020-01-14 14:32:42.500000000	0.026819	-8.902960	-9.280592
2020-01-14 14:32:43.500000000	0.026911	-8.880074	-9.246262
2020-01-14 14:32:44.500000000	0.026727	-8.948734	-9.223375
2020-01-14 14:32:45.500000000	0.026819	-8.868630	-9.246262
2020-01-14 14:32:46.500000000	0.026819	-8.868630	-9.246262
2020-01-14 14:32:47.500000000	0.026819	-8.857186	-9.223375
2020-01-14 14:32:48.500000000	0.026942	-8.857186	-9.223375
2020-01-14 14:32:49.500000000	0.026819	-8.834300	-9.223375
2020-01-14 14:32:50.500000000	0.026911	-8.857187	-9.177602
2020-01-14 14:32:51.500000000	0.026819	-8.857187	-9.177602
2020-01-14 14:32:52.500000000	0.026911	-8.788527	-9.166158
2020-01-14 14:32:53.500000000	0.026819	-8.857186	-9.154715
2020-01-14 14:32:54.500000000	0.026911	-8.777083	-9.131828
2020-01-14 14:32:55.500000000	0.026819	-8.777083	-9.131828
2020-01-14 14:32:56.500000000	0.026819	-8.765639	-9.131828
2020-01-14 14:32:57.500000000	0.026819	-8.765639	-9.131828
2020-01-14 14:32:58.500000000	0.026819	-8.742752	-9.120385
2020-01-14 14:32:59.500000000	0.027279	-8.742752	-9.108941
2020-01-14 14:33:00.500000000	0.027049	-8.742752	-9.108942
2020-01-14 14:33:01.500000000	0.027141	-8.742752	-9.108941
2020-01-14 14:33:02.500000000	0.027003	-8.719866	-9.086055
2020-01-14 14:33:03.500000000	0.027003	-8.731309	-9.097498
2020-01-14 14:33:04.500000000	0.027003	-8.674092	-9.097498
2020-01-14 14:33:05.500000000	0.027049	-8.719866	-9.040281
2020-01-14 14:33:06.500000000	0.027003	-8.674092	-9.040281
2020-01-14 14:33:07.500000000	0.027003	-8.674092	-9.028838
2020-01-14 14:33:08.500000000	0.027233	-8.674092	-9.040281
2020-01-14 14:33:09.500000000	0.027141	-8.651205	-9.017394
2020-01-14 14:33:10.500000000	0.027095	-8.674092	-9.028838
2020-01-14 14:33:11.500000000	0.027049	-8.651205	-9.005951
2020-01-14 14:33:12.500000000	0.027049	-8.651205	-9.005951
2020-01-14 14:33:13.500000000	0.027049	-8.651205	-8.994508
2020-01-14 14:33:14.500000000	0.027371	-8.651205	-9.017394
2020-01-14 14:33:15.500000000	0.027233	-8.651205	-9.005951
2020-01-14 14:33:16.500000000	0.027233	-8.628319	-8.994508
2020-01-14 14:33:17.500000000	0.027233	-8.628319	-9.017394
2020-01-14 14:33:18.500000000	0.027187	-8.643576	-8.994508
2020-01-14 14:33:19.500000000	0.027187	-8.628319	-8.994508
2020-01-14 14:33:20.500000000	0.027463	-8.605432	-8.994508
2020-01-14 14:33:21.500000000	0.027187	-8.582545	-8.971621
2020-01-14 14:33:22.500000000	0.027371	-8.582545	-8.937291
2020-01-14 14:33:23.500000000	0.027325	-8.582545	-8.960177
2020-01-14 14:33:24.500000000	0.027371	-8.582545	-8.960177
2020-01-14 14:33:25.500000000	0.027371	-8.559658	-8.960177
2020-01-14 14:33:26.500000000	0.027371	-8.559658	-8.902960
2020-01-14 14:33:27.500000000	0.027325	-8.559658	-8.914403
2020-01-14 14:33:28.500000000	0.027417	-8.548215	-8.914403
2020-01-14 14:33:29.500000000	0.027417	-8.536772	-8.914403
2020-01-14 14:33:30.500000000	0.027463	-8.536772	-8.880074
2020-01-14 14:33:31.500000000	0.027371	-8.525328	-8.891517
2020-01-14 14:33:32.500000000	0.027371	-8.468111	-8.891517
2020-01-14 14:33:33.500000000	0.027371	-8.490998	-8.834300
2020-01-14 14:33:34.500000000	0.027371	-8.490998	-8.880074
2020-01-14 14:33:35.500000000	0.027371	-8.490998	-8.880074
2020-01-14 14:33:36.500000000	0.027371	-8.490998	-8.880074
2020-01-14 14:33:37.500000000	0.027371	-8.490998	-8.880074
2020-01-14 14:33:38.500000000	0.027325	-8.456668	-8.822856
2020-01-14 14:33:39.500000000	0.027325	-8.456668	-8.811413
2020-01-14 14:33:40.500000000	0.027463	-8.445225	-8.834300
2020-01-14 14:33:41.500000000	0.027417	-8.422338	-8.799970
2020-01-14 14:33:42.500000000	0.027417	-8.445225	-8.811413
2020-01-14 14:33:43.500000000	0.027555	-8.399451	-8.788527
2020-01-14 14:33:44.500000000	0.027647	-8.399451	-8.777083
2020-01-14 14:33:45.500000000	0.027463	-8.399451	-8.811413
2020-01-14 14:33:46.500000000	0.027647	-8.399451	-8.811413
2020-01-14 14:33:47.500000000	0.027647	-8.422338	-8.811413
2020-01-14 14:33:48.500000000	0.027463	-8.376565	-8.719866
2020-01-14 14:33:49.500000000	0.027739	-8.376565	-8.765639
2020-01-14 14:33:50.500000000	0.027463	-8.368936	-8.735124
2020-01-14 14:33:51.500000000	0.027647	-8.368936	-8.696979
2020-01-14 14:33:52.500000000	0.027647	-8.338420	-8.708422
2020-01-14 14:33:53.500000000	0.027693	-8.338420	-8.719866
2020-01-14 14:33:54.500000000	0.027555	-8.338420	-8.674092
2020-01-14 14:33:55.500000000	0.027601	-8.330791	-8.696979
2020-01-14 14:33:56.500000000	0.027601	-8.330791	-8.696979
2020-01-14 14:33:57.500000000	0.027601	-8.307904	-8.674092
2020-01-14 14:33:58.500000000	0.027555	-8.307904	-8.696979
2020-01-14 14:33:59.500000000	0.027923	-8.285017	-8.674092
2020-01-14 14:34:00.500000000	0.027739	-8.307904	-8.696979
2020-01-14 14:34:01.500000000	0.027877	-8.285017	-8.674092
2020-01-14 14:34:02.500000000	0.027877	-8.239244	-8.651205
2020-01-14 14:34:03.500000000	0.027831	-8.285017	-8.651205
2020-01-14 14:34:04.500000000	0.027831	-8.239244	-8.643576
2020-01-14 14:34:05.500000000	0.027831	-8.239244	-8.651205
2020-01-14 14:34:06.500000000	0.027831	-8.216356	-8.651205
2020-01-14 14:34:07.500000000	0.027831	-8.239244	-8.651205
2020-01-14 14:34:08.500000000	0.027831	-8.216356	-8.571102
2020-01-14 14:34:09.500000000	0.027831	-8.193470	-8.571102
2020-01-14 14:34:10.500000000	0.027877	-8.193470	-8.571102
2020-01-14 14:34:11.500000000	0.027923	-8.147696	-8.513885
2020-01-14 14:34:12.500000000	0.028107	-8.182026	-8.536771
2020-01-14 14:34:13.500000000	0.027831	-8.147696	-8.490998
2020-01-14 14:34:14.500000000	0.028061	-8.113366	-8.490998
2020-01-14 14:34:15.500000000	0.028061	-8.124809	-8.479555
2020-01-14 14:34:16.500000000	0.028061	-8.101922	-8.479555
2020-01-14 14:34:17.500000000	0.028107	-8.056149	-8.445225
2020-01-14 14:34:18.500000000	0.028107	-8.056149	-8.445225
2020-01-14 14:34:19.500000000	0.028291	-8.056149	-8.399451
2020-01-14 14:34:20.500000000	0.028383	-8.010375	-8.376564
2020-01-14 14:34:21.500000000	0.028291	-8.010375	-8.388008
2020-01-14 14:34:22.500000000	0.028153	-7.998932	-8.353678
2020-01-14 14:34:23.500000000	0.028291	-7.987489	-8.353678
2020-01-14 14:34:24.500000000	0.028291	-7.987489	-8.353678
2020-01-14 14:34:25.500000000	0.028291	-7.976045	-8.330791
2020-01-14 14:34:26.500000000	0.028291	-7.987489	-8.285017
2020-01-14 14:34:27.500000000	0.028291	-7.953158	-8.285017
2020-01-14 14:34:28.500000000	0.028567	-7.953158	-8.330791
2020-01-14 14:34:29.500000000	0.028245	-7.895941	-8.254501
2020-01-14 14:34:30.500000000	0.028337	-7.895941	-8.239244
2020-01-14 14:34:31.500000000	0.028567	-7.850168	-8.216356
2020-01-14 14:34:32.500000000	0.028337	-7.861611	-8.216356
2020-01-14 14:34:33.500000000	0.028337	-7.827281	-8.216356
2020-01-14 14:34:34.500000000	0.028475	-7.850168	-8.193470
2020-01-14 14:34:35.500000000	0.028475	-7.827281	-8.193470
2020-01-14 14:34:36.500000000	0.028567	-7.827281	-8.147696
2020-01-14 14:34:37.500000000	0.028383	-7.804395	-8.124809
2020-01-14 14:34:38.500000000	0.028659	-7.792951	-8.124809
2020-01-14 14:34:39.500000000	0.028475	-7.758621	-8.124809
2020-01-14 14:34:40.500000000	0.028567	-7.758621	-8.101922
2020-01-14 14:34:41.500000000	0.028659	-7.735734	-8.101922
2020-01-14 14:34:42.500000000	0.028567	-7.712847	-8.079036
2020-01-14 14:34:43.500000000	0.028751	-7.689960	-8.079036
2020-01-14 14:34:44.500000000	0.028705	-7.712847	-8.079036
2020-01-14 14:34:45.500000000	0.028705	-7.667073	-8.021819
2020-01-14 14:34:46.500000000	0.028705	-7.644186	-8.021819
2020-01-14 14:34:47.500000000	0.028705	-7.667073	-8.021819
2020-01-14 14:34:48.500000000	0.028751	-7.667073	-8.021819
2020-01-14 14:34:49.500000000	0.028751	-7.632743	-7.987489
2020-01-14 14:34:50.500000000	0.028705	-7.598413	-7.987489
2020-01-14 14:34:51.500000000	0.028843	-7.598413	-7.976045
2020-01-14 14:34:52.500000000	0.028751	-7.575527	-7.941715
2020-01-14 14:34:53.500000000	0.028843	-7.598413	-7.964602
2020-01-14 14:34:54.500000000	0.028659	-7.586970	-7.918828
2020-01-14 14:34:55.500000000	0.028935	-7.575527	-7.918828
2020-01-14 14:34:56.500000000	0.028751	-7.529753	-7.918828
2020-01-14 14:34:57.500000000	0.028843	-7.529753	-7.895942
2020-01-14 14:34:58.500000000	0.029073	-7.483980	-7.873055
2020-01-14 14:34:59.500000000	0.029027	-7.461092	-7.873055
2020-01-14 14:35:00.500000000	0.028935	-7.472536	-7.873055
2020-01-14 14:35:01.500000000	0.028935	-7.483980	-7.873055
2020-01-14 14:35:02.500000000	0.029119	-7.461092	-7.804395
2020-01-14 14:35:03.500000000	0.029027	-7.483980	-7.827281
2020-01-14 14:35:04.500000000	0.029027	-7.461092	-7.834910
2020-01-14 14:35:05.500000000	0.029027	-7.415319	-7.804395
2020-01-14 14:35:06.500000000	0.029211	-7.403876	-7.781507
2020-01-14 14:35:07.500000000	0.029211	-7.403876	-7.781507
2020-01-14 14:35:08.500000000	0.029027	-7.392432	-7.781507
2020-01-14 14:35:09.500000000	0.029165	-7.369545	-7.781507
2020-01-14 14:35:10.500000000	0.029211	-7.346659	-7.735734
2020-01-14 14:35:11.500000000	0.029211	-7.323771	-7.735734
2020-01-14 14:35:12.500000000	0.029211	-7.323771	-7.712847
2020-01-14 14:35:13.500000000	0.029303	-7.346659	-7.678517
2020-01-14 14:35:14.500000000	0.029303	-7.346659	-7.678517
2020-01-14 14:35:15.500000000	0.029303	-7.277998	-7.678517
2020-01-14 14:35:16.500000000	0.029303	-7.266555	-7.644186
2020-01-14 14:35:17.500000000	0.029303	-7.255112	-7.644186
2020-01-14 14:35:18.500000000	0.029257	-7.232224	-7.621300
2020-01-14 14:35:19.500000000	0.029303	-7.220781	-7.621300
2020-01-14 14:35:20.500000000	0.029487	-7.220781	-7.575527
2020-01-14 14:35:21.500000000	0.029395	-7.232225	-7.598413
2020-01-14 14:35:22.500000000	0.029395	-7.163565	-7.598413
2020-01-14 14:35:23.500000000	0.029579	-7.152121	-7.552639
2020-01-14 14:35:24.500000000	0.029533	-7.140677	-7.529753
2020-01-14 14:35:25.500000000	0.029487	-7.140677	-7.529753
2020-01-14 14:35:26.500000000	0.029487	-7.117791	-7.552639
2020-01-14 14:35:27.500000000	0.029395	-7.140677	-7.483980
2020-01-14 14:35:28.500000000	0.029671	-7.140677	-7.483980
2020-01-14 14:35:29.500000000	0.029579	-7.117791	-7.483980
2020-01-14 14:35:30.500000000	0.029671	-7.072017	-7.472536
2020-01-14 14:35:31.500000000	0.029717	-7.037687	-7.461092
2020-01-14 14:35:32.500000000	0.029947	-7.094904	-7.438206
2020-01-14 14:35:33.500000000	0.029763	-7.014800	-7.415319
2020-01-14 14:35:34.500000000	0.029763	-7.014800	-7.369545
2020-01-14 14:35:35.500000000	0.029993	-6.934697	-7.358102
2020-01-14 14:35:36.500000000	0.029993	-6.911809	-7.323771
2020-01-14 14:35:37.500000000	0.029993	-6.888923	-7.255112
2020-01-14 14:35:38.500000000	0.030131	-6.843149	-7.232224
2020-01-14 14:35:39.500000000	0.030085	-6.820262	-7.232224
2020-01-14 14:35:40.500000000	0.030085	-6.774489	-7.197895
2020-01-14 14:35:41.500000000	0.030361	-6.717272	-7.117791
2020-01-14 14:35:42.500000000	0.030407	-6.682942	-7.094904
2020-01-14 14:35:43.500000000	0.030499	-6.614282	-7.072017
2020-01-14 14:35:44.500000000	0.030315	-6.614282	-7.026244
2020-01-14 14:35:45.500000000	0.030591	-6.614282	-7.003357
2020-01-14 14:35:46.500000000	0.030591	-6.568508	-7.003357
2020-01-14 14:35:47.500000000	0.030591	-6.522734	-6.957583
2020-01-14 14:35:48.500000000	0.030775	-6.465517	-6.888923
2020-01-14 14:35:49.500000000	0.030775	-6.465517	-6.820262
2020-01-14 14:35:50.500000000	0.030867	-6.408300	-6.820262
2020-01-14 14:35:51.500000000	0.030913	-6.362527	-6.797376
2020-01-14 14:35:52.500000000	0.030959	-6.316753	-6.751602
2020-01-14 14:35:53.500000000	0.031143	-6.328197	-6.705829
2020-01-14 14:35:54.500000000	0.031097	-6.328197	-6.682942
2020-01-14 14:35:55.500000000	0.030959	-6.236650	-6.648612
2020-01-14 14:35:56.500000000	0.030959	-6.202320	-6.648612
2020-01-14 14:35:57.500000000	0.030959	-6.156546	-6.648612
2020-01-14 14:35:58.500000000	0.030959	-6.133659	-6.545621
2020-01-14 14:35:59.500000000	0.031419	-6.110772	-6.522735
2020-01-14 14:36:00.500000000	0.031465	-6.064999	-6.454074
2020-01-14 14:36:01.500000000	0.031557	-6.019225	-6.454074
2020-01-14 14:36:02.500000000	0.031419	-5.996338	-6.419744
2020-01-14 14:36:03.500000000	0.031649	-5.950565	-6.362527
2020-01-14 14:36:04.500000000	0.031879	-5.904791	-6.316753
2020-01-14 14:36:05.500000000	0.031833	-5.881905	-6.270980
2020-01-14 14:36:06.500000000	0.031833	-5.859017	-6.270980
2020-01-14 14:36:07.500000000	0.031833	-5.813244	-6.225206
2020-01-14 14:36:08.500000000	0.031833	-5.790357	-6.202320
2020-01-14 14:36:09.500000000	0.032063	-5.767470	-6.179432
2020-01-14 14:36:10.500000000	0.031971	-5.744584	-6.122216
2020-01-14 14:36:11.500000000	0.032017	-5.698810	-6.122216
2020-01-14 14:36:12.500000000	0.031879	-5.698810	-6.087885
2020-01-14 14:36:13.500000000	0.031925	-5.675923	-6.087885
2020-01-14 14:36:14.500000000	0.032109	-5.664480	-6.076442
2020-01-14 14:36:15.500000000	0.032017	-5.641593	-6.042112
2020-01-14 14:36:16.500000000	0.032017	-5.641593	-6.064999
2020-01-14 14:36:17.500000000	0.032017	-5.641593	-6.019225
2020-01-14 14:36:18.500000000	0.032155	-5.641593	-6.019225
2020-01-14 14:36:19.500000000	0.032063	-5.630149	-6.042112
2020-01-14 14:36:20.500000000	0.032063	-5.653037	-6.042112
2020-01-14 14:36:21.500000000	0.032063	-5.653037	-6.042112
2020-01-14 14:36:22.500000000	0.032063	-5.630149	-6.042112
2020-01-14 14:36:23.500000000	0.032063	-5.584376	-5.996338
2020-01-14 14:36:24.500000000	0.032155	-5.584376	-5.973452
2020-01-14 14:36:25.500000000	0.032385	-5.550046	-5.973452
2020-01-14 14:36:26.500000000	0.032385	-5.550046	-5.973452
2020-01-14 14:36:27.500000000	0.032385	-5.469942	-5.973452
2020-01-14 14:36:28.500000000	0.032385	-5.447055	-5.973452
2020-01-14 14:36:29.500000000	0.032523	-5.447055	-5.847574
2020-01-14 14:36:30.500000000	0.032615	-5.412725	-5.790357
2020-01-14 14:36:31.500000000	0.032523	-5.378395	-5.767470
2020-01-14 14:36:32.500000000	0.032569	-5.321178	-5.736955
2020-01-14 14:36:33.500000000	0.032707	-5.321178	-5.675923
2020-01-14 14:36:34.500000000	0.032753	-5.321178	-5.630149
2020-01-14 14:36:35.500000000	0.032937	-5.321178	-5.630150
2020-01-14 14:36:36.500000000	0.032937	-5.195301	-5.630150
2020-01-14 14:36:37.500000000	0.032937	-5.149527	-5.527159
2020-01-14 14:36:38.500000000	0.032983	-5.103754	-5.527159
2020-01-14 14:36:39.500000000	0.032891	-5.103754	-5.492829
2020-01-14 14:36:40.500000000	0.033029	-5.069423	-5.447055
2020-01-14 14:36:41.500000000	0.033305	-5.000763	-5.401282
2020-01-14 14:36:42.500000000	0.033305	-4.974062	-5.378395
2020-01-14 14:36:43.500000000	0.033351	-4.974062	-5.332622
2020-01-14 14:36:44.500000000	0.033443	-4.974062	-5.309734
2020-01-14 14:36:45.500000000	0.033397	-4.974062	-5.263961
2020-01-14 14:36:46.500000000	0.033397	-4.829112	-5.218187
2020-01-14 14:36:47.500000000	0.033443	-4.821483	-5.195301
2020-01-14 14:36:48.500000000	0.033443	-4.821483	-5.172414
2020-01-14 14:36:49.500000000	0.033719	-4.726122	-5.126640
2020-01-14 14:36:50.500000000	0.033811	-4.726122	-5.080867
2020-01-14 14:36:51.500000000	0.033811	-4.657461	-5.080867
2020-01-14 14:36:52.500000000	0.033949	-4.600244	-5.046536
2020-01-14 14:36:53.500000000	0.033719	-4.623131	-5.046536
2020-01-14 14:36:54.500000000	0.033949	-4.554471	-4.966433
2020-01-14 14:36:55.500000000	0.034179	-4.554471	-4.966433
2020-01-14 14:36:56.500000000	0.034179	-4.462924	-4.966433
2020-01-14 14:36:57.500000000	0.034547	-4.440037	-4.966433
2020-01-14 14:36:58.500000000	0.034179	-4.440037	-4.851999
2020-01-14 14:36:59.500000000	0.034271	-4.405707	-4.806225
2020-01-14 14:37:00.500000000	0.034271	-4.348489	-4.760452
2020-01-14 14:37:01.500000000	0.034501	-4.317974	-4.714678
2020-01-14 14:37:02.500000000	0.034455	-4.317974	-4.737565
2020-01-14 14:37:03.500000000	0.034455	-4.256942	-4.691792
2020-01-14 14:37:04.500000000	0.034731	-4.222612	-4.646018
2020-01-14 14:37:05.500000000	0.034639	-4.211169	-4.646018
2020-01-14 14:37:06.500000000	0.034639	-4.188282	-4.646018
2020-01-14 14:37:07.500000000	0.034731	-4.131065	-4.543027
2020-01-14 14:37:08.500000000	0.034777	-4.096735	-4.508697
2020-01-14 14:37:09.500000000	0.034823	-4.096735	-4.462924
2020-01-14 14:37:10.500000000	0.034823	-4.028074	-4.440037
2020-01-14 14:37:11.500000000	0.034869	-4.005188	-4.417150
2020-01-14 14:37:12.500000000	0.034869	-3.982301	-4.394263
2020-01-14 14:37:13.500000000	0.035099	-3.959414	-4.348489
2020-01-14 14:37:14.500000000	0.035099	-3.959414	-4.314159
2020-01-14 14:37:15.500000000	0.035237	-3.867867	-4.279829
2020-01-14 14:37:16.500000000	0.035237	-3.844980	-4.234056
2020-01-14 14:37:17.500000000	0.035237	-3.844980	-4.211169
2020-01-14 14:37:18.500000000	0.035191	-3.787763	-4.188282
2020-01-14 14:37:19.500000000	0.035513	-3.753433	-4.188282
2020-01-14 14:37:20.500000000	0.035467	-3.730546	-4.119622
2020-01-14 14:37:21.500000000	0.035513	-3.673329	-4.073848
2020-01-14 14:37:22.500000000	0.035605	-3.638999	-4.073848
2020-01-14 14:37:23.500000000	0.035697	-3.650442	-4.005188
2020-01-14 14:37:24.500000000	0.035697	-3.650442	-3.982301
2020-01-14 14:37:25.500000000	0.035559	-3.650442	-3.959414
2020-01-14 14:37:26.500000000	0.035559	-3.513122	-3.959414
2020-01-14 14:37:27.500000000	0.035559	-3.513122	-3.959414
2020-01-14 14:37:28.500000000	0.036019	-3.478792	-3.856424
2020-01-14 14:37:29.500000000	0.035927	-3.433018	-3.844980
2020-01-14 14:37:30.500000000	0.036019	-3.410131	-3.799206
2020-01-14 14:37:31.500000000	0.036019	-3.341471	-3.753433
2020-01-14 14:37:32.500000000	0.036065	-3.318584	-3.719103
2020-01-14 14:37:33.500000000	0.036249	-3.295697	-3.661886
2020-01-14 14:37:34.500000000	0.036203	-3.295697	-3.661886
2020-01-14 14:37:35.500000000	0.036387	-3.295697	-3.627556
2020-01-14 14:37:36.500000000	0.036387	-3.227037	-3.627556
2020-01-14 14:37:37.500000000	0.036387	-3.192707	-3.593225
2020-01-14 14:37:38.500000000	0.036387	-3.158376	-3.536009
2020-01-14 14:37:39.500000000	0.036571	-3.112603	-3.501678
2020-01-14 14:37:40.500000000	0.036525	-3.078273	-3.478791
2020-01-14 14:37:41.500000000	0.036525	-3.043943	-3.433018
2020-01-14 14:37:42.500000000	0.036663	-3.032499	-3.410131
2020-01-14 14:37:43.500000000	0.036709	-2.975282	-3.387244
2020-01-14 14:37:44.500000000	0.036617	-2.975282	-3.341471
2020-01-14 14:37:45.500000000	0.036755	-2.929509	-3.295697
2020-01-14 14:37:46.500000000	0.036755	-2.883735	-3.295697
2020-01-14 14:37:47.500000000	0.036755	-2.837961	-3.238480
2020-01-14 14:37:48.500000000	0.036755	-2.803631	-3.181263
2020-01-14 14:37:49.500000000	0.036939	-2.769301	-3.158376
2020-01-14 14:37:50.500000000	0.037031	-2.723528	-3.124046
2020-01-14 14:37:51.500000000	0.037123	-2.677754	-3.066829
2020-01-14 14:37:52.500000000	0.037123	-2.631980	-3.066829
2020-01-14 14:37:53.500000000	0.037261	-2.609094	-3.021056
2020-01-14 14:37:54.500000000	0.037353	-2.586207	-2.998169
2020-01-14 14:37:55.500000000	0.037445	-2.540433	-2.940952
2020-01-14 14:37:56.500000000	0.037445	-2.517546	-2.940952
2020-01-14 14:37:57.500000000	0.037445	-2.483216	-2.860848
2020-01-14 14:37:58.500000000	0.037445	-2.483216	-2.860848
2020-01-14 14:37:59.500000000	0.037445	-2.425999	-2.837961
2020-01-14 14:38:00.500000000	0.037583	-2.403113	-2.780745
2020-01-14 14:38:01.500000000	0.037445	-2.380226	-2.723528
2020-01-14 14:38:02.500000000	0.037675	-2.334452	-2.723528
2020-01-14 14:38:03.500000000	0.037813	-2.288679	-2.723528
2020-01-14 14:38:04.500000000	0.037813	-2.288679	-2.677754
2020-01-14 14:38:05.500000000	0.037675	-2.220018	-2.620537
2020-01-14 14:38:06.500000000	0.037675	-2.242905	-2.620537
2020-01-14 14:38:07.500000000	0.038228	-2.197132	-2.620537
2020-01-14 14:38:08.500000000	0.037859	-2.151358	-2.620537
2020-01-14 14:38:09.500000000	0.037951	-2.105584	-2.494660
2020-01-14 14:38:10.500000000	0.037997	-2.105584	-2.448886
2020-01-14 14:38:11.500000000	0.038228	-2.036924	-2.437443
2020-01-14 14:38:12.500000000	0.038412	-2.036924	-2.414556
2020-01-14 14:38:13.500000000	0.038135	-1.945377	-2.380226
2020-01-14 14:38:14.500000000	0.038274	-1.945377	-2.345896
2020-01-14 14:38:15.500000000	0.038274	-1.945377	-2.334452
2020-01-14 14:38:16.500000000	0.038274	-1.899603	-2.334452
2020-01-14 14:38:17.500000000	0.038274	-1.853830	-2.334452
2020-01-14 14:38:18.500000000	0.038274	-1.830943	-2.174245
2020-01-14 14:38:19.500000000	0.038274	-1.808056	-2.197132
2020-01-14 14:38:20.500000000	0.038872	-1.762283	-2.139915
2020-01-14 14:38:21.500000000	0.038734	-1.750839	-2.105584
2020-01-14 14:38:22.500000000	0.038734	-1.693622	-2.082698
2020-01-14 14:38:23.500000000	0.038826	-1.647849	-2.036924
2020-01-14 14:38:24.500000000	0.038826	-1.647849	-2.014037
2020-01-14 14:38:25.500000000	0.038826	-1.647849	-1.991150
2020-01-14 14:38:26.500000000	0.038826	-1.579188	-1.991150
2020-01-14 14:38:27.500000000	0.038826	-1.510528	-1.991150
2020-01-14 14:38:28.500000000	0.039240	-1.487641	-1.911047
2020-01-14 14:38:29.500000000	0.038964	-1.464754	-1.876716
2020-01-14 14:38:30.500000000	0.039102	-1.441868	-1.819499
2020-01-14 14:38:31.500000000	0.039194	-1.396094	-1.796613
2020-01-14 14:38:32.500000000	0.039240	-1.361764	-1.762283
2020-01-14 14:38:33.500000000	0.039194	-1.361764	-1.705066
2020-01-14 14:38:34.500000000	0.039424	-1.361764	-1.705066
2020-01-14 14:38:35.500000000	0.039240	-1.361764	-1.670735
2020-01-14 14:38:36.500000000	0.039240	-1.361764	-1.602075
2020-01-14 14:38:37.500000000	0.039240	-1.213000	-1.602075
2020-01-14 14:38:38.500000000	0.039424	-1.167226	-1.579188
2020-01-14 14:38:39.500000000	0.039700	-1.132896	-1.533415
2020-01-14 14:38:40.500000000	0.039562	-1.121453	-1.487641
2020-01-14 14:38:41.500000000	0.039562	-1.052792	-1.476198
2020-01-14 14:38:42.500000000	0.039746	-1.041349	-1.441868
2020-01-14 14:38:43.500000000	0.039792	-0.995575	-1.407537
2020-01-14 14:38:44.500000000	0.039884	-0.984132	-1.407537
2020-01-14 14:38:45.500000000	0.040022	-0.926915	-1.350320
2020-01-14 14:38:46.500000000	0.040022	-0.926915	-1.304547
2020-01-14 14:38:47.500000000	0.040022	-0.869698	-1.258773
2020-01-14 14:38:48.500000000	0.040068	-0.823924	-1.258773
2020-01-14 14:38:49.500000000	0.040206	-0.789594	-1.201556
2020-01-14 14:38:50.500000000	0.040206	-0.789594	-1.201556
2020-01-14 14:38:51.500000000	0.040206	-0.720934	-1.132896
2020-01-14 14:38:52.500000000	0.040344	-0.686604	-1.098566
2020-01-14 14:38:53.500000000	0.040390	-0.617943	-1.075679
2020-01-14 14:38:54.500000000	0.040528	-0.617943	-1.075679
2020-01-14 14:38:55.500000000	0.040574	-0.606500	-1.007019
2020-01-14 14:38:56.500000000	0.040574	-0.572170	-1.007019
2020-01-14 14:38:57.500000000	0.040574	-0.526396	-1.007019
2020-01-14 14:38:58.500000000	0.040574	-0.549283	-0.915471
2020-01-14 14:38:59.500000000	0.040574	-0.549283	-0.892585
2020-01-14 14:39:00.500000000	0.040528	-0.480623	-0.846811
2020-01-14 14:39:01.500000000	0.040850	-0.457736	-0.846811
2020-01-14 14:39:02.500000000	0.040712	-0.411962	-0.789594
2020-01-14 14:39:03.500000000	0.040758	-0.377632	-0.732377
2020-01-14 14:39:04.500000000	0.040850	-0.343302	-0.709490
2020-01-14 14:39:05.500000000	0.041126	-0.297528	-0.686604
2020-01-14 14:39:06.500000000	0.041126	-0.274641	-0.686604
2020-01-14 14:39:07.500000000	0.041126	-0.251755	-0.617943
2020-01-14 14:39:08.500000000	0.041034	-0.228868	-0.595056
2020-01-14 14:39:09.500000000	0.041172	-0.183094	-0.572170
2020-01-14 14:39:10.500000000	0.041080	-0.148764	-0.503509
2020-01-14 14:39:11.500000000	0.041448	-0.114434	-0.514953
2020-01-14 14:39:12.500000000	0.041264	-0.068660	-0.480623
2020-01-14 14:39:13.500000000	0.041402	-0.045774	-0.434849
2020-01-14 14:39:14.500000000	0.041356	-0.045774	-0.389075
2020-01-14 14:39:15.500000000	0.041724	-0.045774	-0.366189
2020-01-14 14:39:16.500000000	0.041632	0.034330	-0.320415
2020-01-14 14:39:17.500000000	0.041356	0.114434	-0.320415
2020-01-14 14:39:18.500000000	0.041632	0.102991	-0.274641
2020-01-14 14:39:19.500000000	0.041632	0.125877	-0.240311
2020-01-14 14:39:20.500000000	0.041632	0.183094	-0.240311
2020-01-14 14:39:21.500000000	0.041908	0.205981	-0.205981
2020-01-14 14:39:22.500000000	0.041816	0.205981	-0.160208
2020-01-14 14:39:23.500000000	0.041816	0.251755	-0.137321
2020-01-14 14:39:24.500000000	0.041954	0.274641	-0.114434
2020-01-14 14:39:25.500000000	0.041954	0.308972	-0.091547
2020-01-14 14:39:26.500000000	0.041954	0.297528	-0.091547
2020-01-14 14:39:27.500000000	0.041954	0.320415	-0.045774
2020-01-14 14:39:28.500000000	0.041954	0.320415	-0.068660
2020-01-14 14:39:29.500000000	0.041954	0.331858	-0.034330
2020-01-14 14:39:30.500000000	0.042046	0.331858	-0.034330
2020-01-14 14:39:31.500000000	0.042092	0.343302	-0.022887
2020-01-14 14:39:32.500000000	0.042046	0.343302	-0.022887
2020-01-14 14:39:33.500000000	0.042046	0.343302	-0.045774
2020-01-14 14:39:34.500000000	0.042046	0.343302	-0.022887
2020-01-14 14:39:35.500000000	0.042046	0.331858	-0.034330
2020-01-14 14:39:36.500000000	0.042046	0.331858	-0.034330
2020-01-14 14:39:37.500000000	0.042046	0.331858	-0.034330
2020-01-14 14:39:38.500000000	0.042046	0.366189	-0.034330
2020-01-14 14:39:39.500000000	0.042046	0.366189	-0.034330
2020-01-14 14:39:40.500000000	0.042000	0.366189	-0.011443
2020-01-14 14:39:41.500000000	0.042276	0.366189	0.000000
2020-01-14 14:39:42.500000000	0.042000	0.400519	0.022887
2020-01-14 14:39:43.500000000	0.042092	0.434849	0.000000
2020-01-14 14:39:44.500000000	0.041908	0.389075	0.022887
2020-01-14 14:39:45.500000000	0.042138	0.389075	0.000000